/*--------------------------------*- C++ -*----------------------------------*\
  =========                 |
  \\      /  F ield         | OpenFOAM: The Open Source CFD Toolbox
   \\    /   O peration     | Website:  https://openfoam.org
    \\  /    A nd           | Version:  6
     \\/     M anipulation  |
\*---------------------------------------------------------------------------*/
FoamFile
{
    version     2.0;
    format      ascii;
    class       vectorField;
    location    "0.0446496/lagrangian/kinematicHWCloud";
    object      U;
}
// * * * * * * * * * * * * * * * * * * * * * * * * * * * * * * * * * * * * * //


1000
(
(-0.0312632 -0.0786837 -0.0429657)
(-0.085604 -0.0305823 -0.0521411)
(-0.0611606 -0.435384 -0.0660004)
(-0.0291341 0.0808904 0.0621816)
(-0.00545438 0.009054 0.0027517)
(-0.005753 0.0117121 -0.00680619)
(-0.12781 -0.189886 0.0342951)
(-0.0379519 0.55984 0.12556)
(-0.0050543 -0.0117925 0.003724)
(-0.0598012 0.00642867 -0.0566262)
(0.312527 0.179399 0.233084)
(0.0374807 0.00738037 0.00192054)
(-0.0392142 0.013449 -0.00741353)
(-0.0453939 -0.0273259 -0.0289338)
(-0.00485008 0.0200378 -0.00186957)
(0.139402 0.206555 -0.208089)
(-0.105471 -0.0207218 0.0228221)
(0.000116558 0.0102879 -0.00746001)
(0.267685 -0.201353 -0.401716)
(-0.00574747 -0.0532428 -0.0127634)
(0.161868 -0.0710408 -0.00736396)
(0.0313908 -0.00566134 -0.113899)
(-0.0870295 -0.0392017 0.0228276)
(-0.00101428 0.0192423 0.0161574)
(-0.00248875 -0.0239987 0.0490411)
(0.0153878 -0.00649008 -0.0379997)
(0.0598021 -0.157636 -0.200132)
(-0.00168018 -0.0245409 0.0371662)
(0.0698297 0.0645221 -0.00217706)
(-0.0102145 0.0397295 -0.0589362)
(-0.0654906 0.0328298 0.0149387)
(0.0881292 -0.0413483 0.0131283)
(-0.0419026 0.0711558 -0.136907)
(-0.00971568 0.0721923 -0.0176886)
(0.145506 0.0124546 0.640275)
(-0.211034 -0.0112258 0.223719)
(0.285618 0.353697 -0.266226)
(-0.0446978 0.00532991 0.0981476)
(-0.078936 0.00463131 -0.00998116)
(-0.0388749 0.215025 0.140226)
(-0.0246033 0.0317134 0.0339197)
(0.110152 -0.0922218 0.0902461)
(-0.00699602 0.0526108 0.0728764)
(-0.133425 0.286938 -0.118188)
(-0.062314 -0.018441 0.0229935)
(-0.00258133 -0.0139404 0.00262372)
(0.014002 -0.00448196 -0.0260615)
(0.000180913 0.111553 -0.107881)
(0.0101684 0.0366064 0.0304541)
(0.531271 -0.524752 0.625672)
(0.0156319 0.00282294 0.0505894)
(0.072194 -0.0020052 0.114765)
(-0.0226202 0.0790957 -0.058221)
(0.0112651 -0.047258 -0.0155797)
(-0.038871 0.0406153 0.0530466)
(0.153097 0.149089 -0.106328)
(-0.276582 0.152706 -0.146869)
(-0.0888908 0.00304688 0.031414)
(-0.0200173 0.027445 -0.0563849)
(0.382132 0.246679 0.326051)
(-0.0560089 0.0270344 -0.0556785)
(0.427801 0.457292 -0.245422)
(-0.0097019 -0.0216712 -0.0305827)
(-0.107987 -0.185136 -0.201682)
(0.106451 -0.136086 -0.0766408)
(-0.0516949 0.0450978 -0.0259631)
(0.074016 0.0127674 0.0929633)
(-0.102471 0.108219 0.0623499)
(-0.527706 -0.0954727 -0.405156)
(-0.00112968 -0.0154678 -0.00862693)
(-0.011685 0.00313894 0.0228309)
(0.0757875 0.00808941 -0.0847059)
(-0.00130039 0.0448958 -0.0790167)
(0.00584069 -0.0268059 0.0438707)
(0.0718333 0.0347372 -0.0727517)
(-0.00357893 -0.0150643 0.0304418)
(-0.00450813 -0.0128322 0.00309041)
(-0.0682306 -0.0117202 -0.0473468)
(-0.0591074 -0.097678 -0.0167313)
(0.0102318 -0.0122984 0.0288488)
(-0.0426599 0.0550048 -0.0300681)
(-0.0528075 -0.0268733 0.0332978)
(-0.0311388 -0.102618 -0.0701975)
(-0.21454 0.034671 0.0534506)
(-0.0379615 -0.0824159 0.0710041)
(-0.0539182 -0.0299912 -0.00133057)
(-0.605859 0.426798 0.935093)
(-0.130333 -0.262696 0.0600909)
(0.0256998 -0.0757978 0.0166467)
(-0.0266996 0.0409509 0.0257213)
(-0.0232856 -0.0377181 -0.0403487)
(0.0564649 0.0228389 0.0161098)
(-0.0652484 0.00297559 0.0291014)
(0.00567936 0.0768515 -0.0628183)
(0.0147305 0.0660977 -0.107725)
(0.124632 -0.0117101 0.188326)
(0.0069763 -0.0508291 -0.056162)
(0.0544925 -0.380095 0.0271512)
(0.00971896 0.182555 -0.248019)
(0.111685 0.0781902 0.206089)
(0.519595 0.215393 -0.478374)
(-0.0488561 0.0128099 0.0299108)
(-0.0426464 -0.197419 -0.170949)
(0.18272 0.0996541 0.076468)
(0.0251454 0.025058 -0.17305)
(-0.0413607 0.00436168 0.00929646)
(0.0351006 0.0273474 0.00421281)
(0.0284267 0.0890201 -0.0705139)
(-0.0485225 0.0230619 0.0493853)
(0.0694863 0.00929908 -0.115867)
(-0.179125 0.166996 0.130244)
(-0.0040796 0.069799 -0.062766)
(0.154835 0.879129 -0.250685)
(-0.0133201 -0.311837 -0.0250967)
(-0.296778 0.160283 -0.281745)
(0.0378991 -0.127385 0.0668216)
(-0.0283668 0.0564573 0.0339074)
(-0.102319 -0.0381159 -0.0351345)
(-0.0497699 0.0154038 -0.0776965)
(0.0342538 -0.0265149 -0.00301927)
(0.0988897 0.180068 0.125194)
(-0.0152728 0.00327984 -0.024521)
(0.276617 0.324164 0.233695)
(0.0759544 0.27561 -0.388423)
(0.0140629 0.0578743 0.238907)
(-0.0929208 -0.0104854 -0.0413103)
(-0.0904979 0.0223931 -0.0187931)
(-0.10287 -0.118267 0.0452271)
(-0.216272 0.120331 0.195289)
(0.00434666 0.0426335 -0.12276)
(-0.0609945 -0.0543345 -0.0730127)
(0.0429531 -0.18746 0.185711)
(0.0273039 -0.0268346 0.0159033)
(0.038747 -0.0459624 0.163595)
(-0.0433607 0.00511806 -0.0986096)
(0.379254 0.0641642 -0.384519)
(0.0180132 -0.0531401 0.0217966)
(0.0101407 -0.00474063 0.178972)
(-0.00688599 0.0649259 -0.130133)
(-0.0662347 -0.0197569 -0.152713)
(0.062007 -0.0197343 0.0460006)
(0.022062 -0.138069 0.105302)
(0.0316326 -0.0751947 -0.159736)
(-0.081777 -0.0579585 -0.108422)
(0.0300949 0.0518336 -0.0301587)
(-0.00976356 -0.022067 -0.022117)
(0.0923642 -0.0498416 -0.027685)
(-0.00712561 -0.00272305 0.0484995)
(0.0241533 -0.0458998 -0.0214578)
(-0.694452 -1.10228 -0.353347)
(0.0268484 -0.00176578 0.00151953)
(0.101489 0.125759 0.107084)
(0.267623 -0.102878 -0.0991323)
(-0.00878176 -0.0187263 0.0503582)
(-0.107728 0.0453203 0.086086)
(-0.0523127 0.0543232 0.00876758)
(-0.0308883 0.0747428 0.0978894)
(-0.258667 0.0427618 0.217364)
(-0.102264 -0.326133 0.416503)
(-0.0506884 0.131426 -0.0616422)
(0.0438371 0.101463 0.0725891)
(0.0928113 0.287659 0.526734)
(-0.0714816 0.0491629 0.0544779)
(0.00870676 0.0338109 -0.0250769)
(0.00637954 -0.00454005 -0.057716)
(-0.158875 -0.00552011 0.112355)
(-0.133343 -0.261105 -0.0614991)
(0.00176659 -0.00195747 -0.0931429)
(0.139233 0.0751066 0.11251)
(0.0688825 -0.0304061 -0.0649926)
(-0.0787309 0.308606 0.337891)
(-0.0865958 0.0647011 0.0534221)
(-0.0136263 0.0216435 0.0487178)
(0.0258028 -0.0424314 -0.00481866)
(-0.208507 -0.141371 0.0782509)
(-0.0263837 -0.136635 0.0113319)
(-0.16302 0.0779153 -0.235393)
(0.00575103 -0.0163035 0.0293965)
(-0.0393752 0.355351 0.340542)
(-0.0303661 -0.0410272 0.0234629)
(0.0192979 0.0271411 0.0787151)
(0.447113 0.503299 0.0584971)
(0.0424279 0.0736935 0.0994513)
(-0.0442271 -0.153276 -0.00733592)
(0.0013438 -0.0129098 0.000195333)
(0.130716 0.00162085 0.141652)
(-0.20527 0.193317 -0.216299)
(-0.030782 0.0893329 0.0778473)
(-0.00367428 -0.259427 0.348407)
(-0.284319 -0.0814257 -0.0673912)
(-0.0849445 0.07855 -0.13301)
(-0.0303131 -0.0772587 0.35453)
(0.0101218 0.00169129 0.0147634)
(-0.00587291 0.0150135 -0.00794454)
(-0.00718884 -0.0623815 -0.00962698)
(-0.0661238 -0.208654 -0.150191)
(-0.0217753 -0.0252452 -0.108266)
(0.0419544 -0.00825004 0.0988404)
(0.0129507 0.0358221 0.0156815)
(-0.202309 -0.153362 -0.363206)
(0.0500685 0.000704038 0.0322459)
(0.0235347 -0.026426 0.0359551)
(0.110404 0.00401941 0.193574)
(-0.0173548 0.0140636 0.0229727)
(0.0357184 -0.0129173 0.0708823)
(0.0645875 0.237023 -0.372579)
(0.104331 0.114325 0.0694735)
(0.0257334 -0.0208632 0.0503906)
(-0.482629 0.3489 -0.614178)
(-0.00455754 0.160582 -0.0311513)
(0.0173723 -0.0276849 -0.00596878)
(0.00997154 -0.0680596 0.0344127)
(-0.0412301 -0.00719793 -0.0518686)
(0.101368 -0.0729996 0.0268661)
(-0.0202653 -0.0538396 0.0329747)
(-0.827575 0.0705617 0.883137)
(0.00439484 -0.0967429 0.0550448)
(0.00730377 0.02649 0.0203296)
(0.0829773 0.0901556 -0.0245236)
(0.0108672 0.0467683 0.0817672)
(-0.554518 0.171113 0.254318)
(0.20446 0.345498 0.0492223)
(0.0555681 0.0334025 -0.385184)
(-0.342081 0.040903 -0.26542)
(-0.191297 -0.183304 -0.0523769)
(0.0271579 0.00540398 0.00926929)
(0.0305543 0.00820743 0.0240169)
(-0.0505664 -0.0682034 -0.0148469)
(-0.00765051 -0.0275754 -0.0407227)
(-0.0065525 -0.0200034 0.0251563)
(0.0878469 -0.0611454 0.0510014)
(-0.195099 0.166344 -0.0500922)
(0.074953 -0.0103048 0.0347116)
(-0.0154388 -0.0368273 -0.0108477)
(-0.110641 0.180965 0.377481)
(0.0460603 0.0334699 -0.0946359)
(-0.013803 -0.00133428 -0.0278485)
(-0.0888953 -0.0207463 0.0643177)
(0.0216786 0.00502025 -0.0020362)
(0.0523744 -0.0182843 -0.0467001)
(-0.0625232 -0.0862157 -0.00260631)
(-0.247199 -0.140616 0.282613)
(-0.0600438 -0.107963 0.383038)
(0.0429566 -0.0294106 0.153421)
(-0.0593759 0.0632333 -0.0355638)
(0.0308685 0.0299496 0.0232675)
(-0.16446 -0.0739919 -0.147231)
(0.268736 0.0581319 -0.0805222)
(0.125369 -0.0865376 0.0195816)
(-0.0580586 0.239971 -0.0740157)
(-0.0137094 0.00405022 0.0111327)
(0.00490353 -0.00686686 0.00903663)
(-0.0327285 -0.0127092 0.0590623)
(0.0103578 -0.0248473 -0.142537)
(-0.0044603 0.0436059 -0.0444075)
(0.0386529 -0.0506933 -0.154385)
(0.161136 0.129284 -0.171102)
(0.024177 -0.0517184 -0.0301613)
(0.0255719 -0.00908972 -0.0101292)
(-0.104698 -0.435365 0.175689)
(-0.0851976 0.027608 -0.215989)
(0.0150803 0.021643 -0.0416767)
(-0.0187517 -0.0448353 0.0399633)
(0.0197241 -0.0538654 -0.00664977)
(0.207578 -0.0228605 0.0857397)
(0.380463 0.268799 0.564784)
(0.198294 0.256018 -0.0945208)
(-0.0309365 0.0328723 -0.0241832)
(-0.0469406 0.0457461 -0.0281486)
(-0.0135249 0.092776 0.24846)
(-0.332001 0.00828979 -0.167911)
(-0.197312 0.126193 -0.119564)
(0.087826 0.0524389 0.0690273)
(0.411174 -0.0879757 -0.0359697)
(-0.0520559 -0.0150064 -0.0893837)
(0.0230745 -0.0883165 -0.0200169)
(0.00947441 0.0378276 0.0383921)
(0.181794 -0.031901 -0.00983648)
(0.0432489 0.0576254 0.198242)
(-0.00203293 -0.0272848 0.114858)
(-0.0316646 0.0186887 0.0224496)
(0.181663 -0.32106 0.160174)
(-0.0860914 -0.0102525 0.0947566)
(0.110865 -0.0501356 -0.114811)
(-0.00016936 0.0581216 0.0282997)
(-0.269291 -0.0828964 -0.0167788)
(-0.0526031 0.0419333 -0.0399527)
(0.192444 -0.0928241 -0.237443)
(-0.0469267 0.0196018 -0.0914398)
(-0.0581895 0.233436 0.0572777)
(0.0604463 0.0271422 -0.0189516)
(-0.17998 -0.15525 0.110894)
(0.0851116 0.745939 -0.269505)
(-0.0142303 0.0181097 0.00194271)
(0.0337643 0.0228478 0.011364)
(-0.0397137 -0.187022 0.104471)
(0.0734282 0.000937916 -0.00837305)
(0.0133639 0.00524119 -0.0207046)
(-0.0473683 0.0307223 -0.0479739)
(-0.0214226 0.0510659 0.0450546)
(-0.355082 0.196548 0.18652)
(-0.0367579 -0.263093 -0.100854)
(-0.0153176 0.262835 0.012263)
(-0.0609649 0.029287 0.0328426)
(-0.0176444 -0.00163981 0.106028)
(-0.0534791 0.0310398 -0.0105557)
(-0.330697 -0.537787 0.320767)
(-0.383838 -0.285198 -0.140088)
(-0.0961107 0.0497841 0.0715165)
(-0.145856 -0.0210817 -0.0216815)
(0.0907047 -0.00327712 -0.042757)
(0.180949 -0.379092 -0.208312)
(-0.0818743 0.324904 0.25045)
(-0.0502653 -0.0885492 -0.0122002)
(0.20564 -0.143561 0.157022)
(0.0218628 -0.067235 0.0456408)
(-0.118789 -0.155935 -0.0183677)
(-0.171546 0.175564 -0.32134)
(-0.309482 0.228437 -0.37155)
(0.134102 -0.0564285 -0.0543526)
(0.0566377 -0.0127148 0.010081)
(-0.0336156 -0.0978138 0.112248)
(0.155761 -0.116572 -0.101852)
(0.135169 -0.0880794 -0.142242)
(-0.0346309 -0.0516753 0.101552)
(-0.0739588 -0.23937 0.0365277)
(2.14026e-05 0.0765211 0.0233415)
(0.224049 0.0461541 0.0125379)
(0.00710891 -0.0496999 0.141059)
(0.145336 0.0158597 -0.0150739)
(-0.00731764 -0.00408718 -0.0818089)
(0.131402 0.0537596 -0.0255026)
(0.807603 -0.938444 -0.289075)
(-0.0442756 0.0759131 -0.0320385)
(-0.0230625 -0.00405237 0.0129671)
(-0.0239742 -0.0132333 0.0522859)
(0.0574388 -0.111912 -0.0577546)
(0.0631587 -0.0548001 0.0796839)
(-0.0597308 0.0282106 0.0934147)
(0.0189708 -0.0768683 -0.11212)
(-0.02564 0.0411936 -0.033925)
(0.325994 -0.107924 -0.13033)
(-0.0091602 0.0505211 -0.119912)
(0.043689 0.03064 -0.0323771)
(0.212368 0.118751 -0.104809)
(-0.0136331 0.0230069 0.0998044)
(0.0313503 -0.0834863 0.0677416)
(0.027206 0.0767848 0.0335462)
(-0.00912506 0.133314 0.159225)
(-0.00214253 0.0242043 -0.0302012)
(0.0611971 0.103625 -0.0288929)
(-0.247114 0.0655598 -0.187967)
(-0.0148221 0.0181598 0.00246784)
(-0.0227885 0.0261504 -0.0786896)
(0.0679029 -0.014949 -0.0341656)
(-0.0422402 0.0599624 -0.0122942)
(0.0604551 0.0128973 -0.0197504)
(-0.040653 -0.0661552 0.0599197)
(0.0507884 -0.0355205 0.015756)
(0.0284739 -0.141503 -0.00206319)
(-0.00606675 -0.0108036 0.0573101)
(0.300642 -0.133099 -0.415312)
(0.0240976 0.0208746 -0.0501998)
(0.0724682 0.0154122 0.00724408)
(-0.109136 0.0227536 -0.0392434)
(-0.0836364 0.0134943 -0.0267149)
(0.0582618 0.0373577 -0.09106)
(-0.0341302 -0.0258734 0.172059)
(-0.125848 0.0516944 -0.0441166)
(-0.247195 -0.0488136 0.0681708)
(-0.0798634 0.140352 0.145273)
(-0.0299083 -0.0209806 0.0245748)
(0.0656669 -0.0657779 0.0989117)
(0.0784631 -0.111935 -0.0167501)
(0.0027979 0.0050314 0.0293723)
(0.0217225 0.00100443 0.0693864)
(-0.225467 -0.0369452 -0.125447)
(-0.0378783 -0.0515283 -0.0776019)
(0.0242171 -0.0282245 0.0303497)
(0.0157545 0.22994 -0.201226)
(0.0791196 -0.108121 -0.127696)
(0.0844611 0.0134382 0.066702)
(-0.0910698 -0.0787037 -0.0251196)
(0.0574682 -0.0275074 -0.0544876)
(-0.0718361 -0.0705596 0.0731349)
(0.0470101 -0.0041124 0.0445458)
(0.0595131 0.425222 -0.127975)
(-0.279219 -0.0188058 -0.157959)
(-0.454925 0.0948541 0.588917)
(-0.249834 0.137851 0.0811782)
(0.00636261 0.125518 -0.0769501)
(-0.0305616 -0.00586751 0.0387819)
(-0.0520406 0.0303978 0.0917039)
(-0.0314389 -0.0345456 -0.0114895)
(-0.0300792 -0.00354756 0.0712985)
(0.0388431 0.00362475 -0.00586929)
(0.260316 -0.0186227 0.2058)
(0.0833152 -0.383967 0.00143212)
(-0.0739884 -0.0926527 0.0329622)
(0.0540609 -0.0391674 0.0344673)
(-0.0318505 -0.296798 -0.156686)
(-0.0808735 -0.13035 -0.203692)
(-0.106419 0.00387869 -0.0373346)
(-0.0659287 -0.0235688 -0.159935)
(0.185434 -0.22322 -0.0616591)
(0.0864658 0.0834035 -0.0354904)
(-0.234415 -0.105151 -0.178216)
(-0.124445 0.0166884 -0.0727651)
(0.0120501 -0.0168549 -0.00750595)
(-0.0540112 0.149992 0.126754)
(-0.0879797 0.0641537 0.115278)
(-0.162587 0.0540144 0.0786739)
(0.0418144 0.123944 -0.33656)
(0.0744566 -0.0151666 0.00157711)
(-0.00272895 -0.000693189 0.021205)
(-0.0443731 -0.392 0.028917)
(0.0174368 0.0620217 0.0690203)
(0.0584483 -0.00868314 -0.0325644)
(0.365122 0.0222757 0.23525)
(-0.0419596 0.00743372 -0.00271907)
(-0.0456267 0.00602096 -0.0873938)
(-0.00922328 -0.0199203 -0.0232796)
(0.119078 -0.0635357 -0.213151)
(0.000922236 0.00335976 0.00114303)
(-0.0413338 0.00246743 -0.117389)
(-0.0837667 0.222845 -0.257714)
(0.0219572 0.0273143 -0.0302347)
(0.0853191 -0.13382 -0.286038)
(0.0817178 -0.0164363 -0.0802486)
(-0.140368 0.0853792 -0.039876)
(-0.0429286 -0.0113308 -0.0241725)
(-0.060197 0.00980315 0.0442803)
(-0.247665 -0.135215 -0.20114)
(-0.0148032 -0.00826112 -0.174039)
(0.0224615 -0.0574458 -0.0427218)
(-0.0091241 -0.0531048 0.0105063)
(0.0564088 0.0149624 -0.0350239)
(0.00480285 -0.118347 0.020279)
(0.0273863 0.00729599 0.0133409)
(-0.0499812 -0.0414523 0.0549107)
(-0.0548473 0.00964407 -0.0402287)
(-0.0913598 -0.0214578 0.0513485)
(-0.0378821 0.0182784 -0.00652565)
(-0.118111 0.0280992 0.0899571)
(-0.229523 -0.111869 0.143063)
(0.0333385 -0.0909656 0.222546)
(0.0608985 0.198824 -0.19155)
(0.0215982 -0.0297452 -0.0578756)
(0.0522137 0.0134016 -0.118066)
(-0.0180849 0.0785288 -0.0289408)
(-0.00862928 -0.0234394 0.0853588)
(0.118406 0.235415 3.2091e-05)
(-0.125525 -0.101168 -0.19636)
(0.00907145 -0.00374982 0.0426769)
(-0.157104 0.0447152 -0.168491)
(0.0922245 0.202122 0.0726508)
(-0.0500585 0.00640084 -0.17385)
(0.11776 0.0713961 -0.144593)
(0.0699622 0.0404949 0.00253748)
(-0.000917583 0.00278765 0.0333449)
(-0.096591 0.0237545 0.00429996)
(0.0631851 0.0536919 -0.12333)
(0.0126421 0.0286142 -0.06532)
(0.0461199 0.0189473 0.0762414)
(0.0358435 0.122057 0.189868)
(0.0548648 -0.00221913 -0.0141753)
(0.00515647 0.0037529 -0.00135456)
(0.538399 -0.00776184 -0.290502)
(-0.0249054 -0.022945 -0.0340935)
(0.00511536 -0.074022 -0.1296)
(-0.0500695 0.00355356 0.0203023)
(-0.0235327 0.00984802 -0.0127641)
(-0.117388 -0.0512379 0.271939)
(-0.0414076 0.0171506 -0.0734497)
(-0.0982245 -0.122914 0.227775)
(-0.0660778 -0.00473373 -0.00698031)
(0.0258028 -0.0424314 -0.00481866)
(-0.0145183 0.112022 0.105418)
(-0.148348 -0.492783 0.250825)
(-0.13488 -0.218199 0.0153935)
(-0.0694688 -0.0135361 -0.139739)
(0.0209454 -0.0376846 0.0490619)
(0.066652 -0.00215954 -0.068478)
(-0.00575566 -0.0848905 0.016248)
(0.147925 -0.0464419 0.0922206)
(0.00362838 -0.0505916 0.085763)
(-0.212292 0.0319937 0.124552)
(0.0488326 -0.0315497 0.00393695)
(0.0431282 -0.151429 -0.0223016)
(-0.0198179 -0.0117447 0.0571805)
(-0.0137122 0.0335596 0.0296809)
(-0.223351 -0.171139 -0.041689)
(-0.0258881 -0.0167121 0.208155)
(-0.164683 0.000947807 -0.0864821)
(0.649174 0.233459 -0.0477706)
(0.506113 -0.18745 -0.0478275)
(-0.192124 -0.0642653 0.0363198)
(-0.133136 0.032875 0.0922578)
(-0.0836286 0.0937729 -0.0770166)
(-0.00960015 -0.0205389 0.0134005)
(0.033351 0.0711231 0.00545637)
(0.00480507 0.0089458 0.0168997)
(0.0747545 0.0208085 -0.127517)
(0.0326299 -0.0839757 0.131371)
(-0.0284892 0.0152892 0.00444154)
(-0.0296744 -0.011048 0.139651)
(-0.237413 0.748367 -0.456971)
(-0.00302424 -0.106682 -0.0505486)
(-0.0235413 -0.0209831 -0.00697235)
(0.0686339 0.130917 -0.0990094)
(0.0285159 0.00422739 -0.0773829)
(0.138781 0.0937844 0.101508)
(0.0124542 -0.0839918 -0.10781)
(-0.0899121 0.0402115 -0.0118178)
(-0.06974 0.0310844 0.0974297)
(-0.0563904 -0.010064 -0.0955299)
(0.000583485 0.0193634 0.0398895)
(-0.0889381 0.0970774 -0.278403)
(0.0789323 0.0923628 0.276884)
(0.0997705 -0.258726 0.29438)
(0.122431 0.0457261 -0.0552674)
(-0.0231981 -0.0355909 -0.0552531)
(0.0284516 0.0410664 0.0858743)
(-0.161357 0.109549 0.448212)
(0.0135171 -0.00209044 -0.0166655)
(0.00282146 0.0516172 0.00169669)
(-0.0271161 -0.0918292 -0.132241)
(-0.0562357 0.00198064 0.0103534)
(-0.0571812 -0.0339322 0.0107515)
(0.113807 -0.168495 -0.665333)
(-0.00557517 0.0113937 0.000481892)
(0.0151516 -0.0378045 -0.0174254)
(-0.00992189 0.37605 0.00988289)
(-0.029233 -0.025058 0.0104146)
(-0.0120089 -0.0322578 -0.00392188)
(-0.0126928 -0.0166686 -0.0380828)
(0.0280595 -0.0424715 -0.124535)
(0.103511 -0.0343174 0.0946061)
(0.173979 0.0564659 -0.241713)
(-0.14633 0.0320136 0.106042)
(0.00518805 -0.0581928 -0.0415439)
(0.0565646 0.0207342 0.112771)
(0.284847 0.215466 0.203657)
(-0.112679 -0.0619332 0.163748)
(0.034944 0.0164383 0.203242)
(-0.0518426 0.00797545 -0.0930898)
(-0.091533 -0.107066 0.0218326)
(0.0082433 -0.0147691 -0.0156947)
(0.0511119 -0.148356 -0.00308555)
(-0.135077 0.0785207 -0.0555098)
(0.207862 -0.0673744 -0.0177009)
(-0.00349709 -0.00405826 0.0531218)
(0.0224164 0.0872405 0.120389)
(0.121448 0.00153835 -0.15052)
(-0.408432 0.148528 -0.0720912)
(-0.124152 -0.0140282 0.507332)
(0.00642801 0.0231061 0.0358179)
(-0.237396 0.0732639 0.0645265)
(-0.108662 -0.152426 -0.124051)
(0.0555104 0.132841 -0.0650894)
(0.0562378 0.0864765 -0.0994833)
(0.0170199 -0.0406537 0.057396)
(-0.177475 -0.391274 -0.0101118)
(-0.083237 0.0494837 0.0946877)
(0.202367 0.198135 0.0315705)
(0.110967 -0.018452 0.102258)
(0.0490619 0.034537 0.0530047)
(-0.0366399 -0.0101084 0.0308294)
(0.0293572 -0.0416801 0.0145917)
(0.301437 0.361187 0.114203)
(-0.00768941 0.0482698 0.000244762)
(-0.00606215 0.060422 -0.0183889)
(-0.0258206 -0.00505608 0.0121927)
(-0.00213095 -0.0958362 0.0636519)
(-0.0280438 0.0502748 -0.0646592)
(0.0773369 -0.0312879 0.0154611)
(0.069149 -0.114739 -0.0259166)
(0.114598 -0.0167611 0.118239)
(0.057709 -0.0106368 0.0242374)
(0.0163044 -0.0201777 0.0262363)
(0.0242042 -0.0169225 0.173723)
(0.000272716 0.0321576 0.0770493)
(0.0738772 0.0219686 0.0592711)
(0.234544 -0.0281915 0.0670816)
(0.000521639 0.020414 -0.140576)
(-0.0881548 -0.00299203 0.0528907)
(-0.108813 0.0509682 -0.326734)
(-0.0202172 -0.0352228 -0.0871033)
(0.0921751 0.0320233 -0.0268946)
(-0.335765 0.369481 0.0281238)
(-0.0144642 0.00897419 0.00277563)
(0.0407098 0.00587538 0.00519074)
(-0.0491514 -0.0347082 -0.0181381)
(-0.0925313 0.0466862 -0.0168072)
(0.00457519 0.00490724 0.0049482)
(0.0201029 -0.103003 0.106208)
(0.0410743 -0.102668 0.0314108)
(-0.0489621 0.0025012 -0.0417006)
(-0.0219101 -0.110309 0.0795809)
(0.0521769 0.169626 -0.104951)
(0.0310799 -0.023363 -0.0842578)
(-0.0306786 0.0119377 0.0746239)
(-0.0693192 -0.0135369 0.00774389)
(0.0587225 0.353556 0.129376)
(0.245282 0.142209 0.057415)
(-0.0437225 0.0276935 0.0442342)
(0.00400826 -0.112152 -0.0423609)
(-0.00415207 0.0706095 -0.0664107)
(-0.0344292 0.0415854 -0.0554485)
(0.20673 0.0186403 0.141203)
(-0.197388 0.0390749 0.141088)
(0.0458936 -0.0310978 0.0311638)
(-0.0185331 0.00455517 0.0244697)
(0.0100386 0.0359801 -0.0202667)
(0.0223706 -0.0578696 -0.0300108)
(0.0255173 -0.000728461 0.0046976)
(-0.277209 -0.0188027 -0.435691)
(0.131858 0.189518 0.103437)
(0.0439192 -0.0665102 -0.273073)
(-0.0266424 0.0149068 0.0113846)
(0.0272772 0.00467587 0.0546889)
(-0.0223789 -0.0168435 -0.0417648)
(-0.26463 -0.16402 -0.0863626)
(-0.0226834 -0.0170912 -0.022309)
(-0.251708 -0.201512 -0.482482)
(-0.0222442 -0.126489 0.00487619)
(-0.547234 0.0413409 0.0704442)
(-0.0217889 -0.085905 0.158942)
(0.0381028 -0.0624414 -0.566047)
(0.290399 0.415989 0.272441)
(0.615572 0.224015 -0.0313507)
(0.0963537 0.0333331 -0.0930919)
(-0.36728 -0.0216079 0.120835)
(0.0595913 -0.0269962 -0.114678)
(0.0144215 -0.0410818 0.04992)
(-0.142408 0.0788939 0.0860759)
(-0.00606675 -0.0108036 0.0573101)
(0.244044 -0.307852 0.436525)
(0.000864767 0.00164932 0.000609375)
(0.030678 -0.0331116 -0.00806035)
(0.275617 0.110356 -0.0359188)
(0.154904 -0.000640069 0.0266183)
(0.104004 -0.106079 -0.0246217)
(0.0382354 -0.0335654 -0.0310943)
(-0.143472 0.0946294 0.126863)
(0.00158264 -0.0173435 -0.0274989)
(-0.0115483 -0.0392067 0.00239773)
(-0.00387364 -0.0934078 0.0994919)
(-0.0322293 -0.0820934 0.0747532)
(0.00147753 0.0622625 -0.00498988)
(-0.113581 -0.0252772 0.209733)
(0.0282854 0.0887166 -0.00603193)
(0.0334934 0.0278372 -0.0432501)
(0.10219 0.0796021 -0.0548221)
(0.0373379 -0.0418262 0.887464)
(-0.0307102 -0.025447 0.035218)
(-0.0101734 -0.0168173 0.0526693)
(0.162729 0.0959406 0.0658363)
(0.0046139 -0.0036151 -0.0264591)
(-0.0674474 0.0788532 -0.0594704)
(-0.0217931 -0.0803745 0.0472303)
(0.392752 -0.11151 -0.13385)
(-0.0189748 0.13556 -0.11222)
(0.00245013 0.0266785 -0.15911)
(0.217438 0.0748438 -0.270514)
(-0.00081114 0.0158781 -0.0565364)
(0.0548533 0.0485832 -0.0687655)
(0.371087 -0.386689 0.013408)
(-0.0363205 0.00808976 0.0143205)
(-0.0482828 0.040576 0.0364825)
(-0.165712 0.318328 -0.097478)
(-0.00421225 0.00741807 0.00294266)
(-0.114427 -0.12543 0.060396)
(-0.0490633 -0.0547247 0.0139763)
(-0.029291 0.000540708 0.0112011)
(0.0463723 0.0509753 0.0249764)
(0.0271117 0.0124871 0.492257)
(0.0266695 0.0253091 0.100086)
(-0.0666311 -0.243281 -0.14916)
(0.0613077 0.142609 0.0340572)
(0.00920461 0.125737 -0.237769)
(-0.0461356 0.0245326 0.00244548)
(-0.0406875 -0.0428755 -0.122515)
(0.570358 0.132962 0.00207596)
(0.216664 -0.0229244 -0.283982)
(-0.155969 0.142098 -0.0365668)
(0.104204 -0.0335953 -0.00861882)
(0.0278412 0.0167175 -0.00727174)
(-0.0107369 -0.0163696 -0.0453707)
(-0.021142 0.0172972 -0.027712)
(0.324167 0.314637 0.0799879)
(-0.179902 0.000972227 0.0585987)
(-0.154688 0.48856 -0.128)
(-0.0323386 -0.18119 0.0343753)
(-0.0310762 -0.00279056 0.0117006)
(0.0111274 0.00156311 -0.0161473)
(-0.125165 0.0268468 -0.1166)
(-0.0688554 -0.0191936 -0.0516247)
(-0.0141692 -0.0222862 -0.0226005)
(0.0262443 0.135807 -0.100833)
(0.15976 0.205471 -0.021316)
(-0.0385811 -0.189386 -0.295151)
(0.117266 -0.0363217 -0.0127112)
(0.371604 0.163933 -0.0438448)
(0.00183282 0.0155541 0.0277901)
(0.00229079 -0.0344802 -0.0626975)
(-0.195288 0.09531 -0.287233)
(-0.0145831 -0.0242855 0.00641742)
(-0.0440454 -0.0337753 0.00714739)
(-0.164732 -0.0284184 0.223776)
(-0.0057084 -0.0283326 0.00331347)
(0.16089 -0.0627609 0.0546535)
(-0.051281 0.127106 0.288207)
(-0.100174 -0.00663477 -0.0514586)
(-0.0314799 0.00519533 0.0366721)
(-0.0363934 0.137466 -0.0195876)
(-0.00812493 -0.00119056 0.0431228)
(-0.262234 0.119116 0.0202154)
(0.0799855 -0.149864 -0.45669)
(0.000406952 0.0772163 -0.0222698)
(-0.0361122 -0.0486172 0.041883)
(-0.134159 -0.0105174 0.0963653)
(0.215491 -0.164436 0.304739)
(-0.545316 0.147746 0.491283)
(0.0250627 -0.0488803 -0.0418563)
(0.0236686 0.185059 0.18695)
(0.057421 -0.203413 -0.101629)
(-0.024628 0.513253 -0.179975)
(0.0609818 -0.0325657 -0.0869271)
(0.0437897 0.00990943 0.0380118)
(-0.0192861 0.00777705 0.0107657)
(-0.0124546 -0.00983975 0.0268033)
(-0.0842798 -0.0317795 0.0462462)
(-0.0875685 -0.0247381 -0.0897026)
(-0.118936 0.107844 0.1245)
(-0.084536 0.0154788 0.0672193)
(-0.22222 0.449109 0.274798)
(-0.0163914 0.14605 -0.202591)
(0.0239357 0.0449925 0.0143269)
(-0.270732 -0.143787 -0.0694264)
(-0.0317175 0.0606933 0.0379008)
(0.111984 -0.0174486 -0.053978)
(-0.00438742 -0.0200358 -0.033834)
(0.164919 -0.336737 0.13182)
(-0.0231215 0.181722 -0.0298985)
(-0.0672269 0.209375 -0.398408)
(-0.142897 0.12486 0.306484)
(0.00139643 0.00125484 -0.0191353)
(-0.025523 0.00709202 -0.0172179)
(-0.0224079 -0.0413057 -0.0214688)
(-0.0194586 -0.0329897 0.0733847)
(-0.0136548 0.00591176 -0.0250015)
(-0.0683285 -0.013541 0.0746935)
(0.00330098 0.0947073 0.0877881)
(0.0197745 0.0585618 -0.0279923)
(0.00629739 -0.0459472 -0.0339794)
(0.0105772 -0.317723 0.159416)
(0.00182728 -0.0689665 0.0124562)
(-0.0865767 0.160784 0.0212367)
(-0.0371066 0.0619771 -0.0647495)
(0.0167268 -0.0157543 0.00970632)
(-0.0602157 -0.0117434 -0.0703663)
(-0.0201929 0.077339 0.028596)
(0.209275 -0.115213 0.366792)
(0.209839 0.332672 0.206483)
(0.111838 -0.0207349 0.877827)
(0.202007 0.0749949 -0.0727058)
(0.0608052 0.0193996 -0.253482)
(0.104554 0.135462 0.0130204)
(-0.0923118 -0.0323338 0.186417)
(0.0162871 -0.0516004 0.00345594)
(0.336609 -0.00318795 0.380509)
(-0.0305591 0.121239 -0.0161444)
(0.0489117 0.116841 -0.0085542)
(0.0694387 0.0157975 -0.0301698)
(-0.0595291 0.166569 0.0963943)
(0.287603 -0.127125 0.0177454)
(0.026549 -0.09787 0.065512)
(0.195001 0.0450161 0.0466432)
(-0.126201 -0.11114 0.0570278)
(-0.0336152 -0.0503157 -0.0813641)
(0.0268458 0.0141743 -0.00376543)
(0.069185 0.0800503 -0.00668759)
(-0.103185 0.541715 0.416945)
(0.202251 0.00662365 -0.151319)
(0.0122381 0.0262524 -0.0324386)
(0.0316244 0.025225 0.0374154)
(-0.224538 0.00776145 -0.129208)
(-0.264532 -0.391119 0.0664474)
(-0.0284745 -0.0843662 -0.152868)
(3.69335e-05 -0.0327762 -0.130448)
(0.049055 0.0933426 0.176389)
(-0.0072679 0.00124069 -0.0431688)
(-0.0455682 -0.0315503 -0.0302846)
(-0.162823 -0.0542822 -0.0211786)
(0.137926 -0.00902047 -0.0968168)
(-0.228262 0.0489248 -0.0160714)
(0.0152232 -0.0205581 -0.0555826)
(-0.0018537 -0.0605532 0.0054946)
(-0.0349344 -0.00904735 0.00303907)
(0.0157333 0.00222695 0.0350221)
(-0.129098 0.0764723 -0.029551)
(0.0284381 0.0754444 -0.0151544)
(-0.00643351 -0.0568634 0.0882875)
(0.117304 -0.0221461 0.0253835)
(-0.0271727 0.0297367 -0.021638)
(-0.0126044 0.0786858 0.0926076)
(0.0727209 0.172733 -0.110018)
(-0.0191528 0.0104198 -0.0024337)
(0.201669 0.0488855 -0.162164)
(-0.00168321 -0.00127318 0.00260635)
(-0.0448544 -0.041008 -0.0912389)
(-0.0249853 -0.0403572 0.0336431)
(-0.186214 0.00223873 -0.118019)
(-0.410122 0.039655 0.282674)
(0.0131833 -0.0307397 -0.0137711)
(0.0588713 0.0159724 0.0900761)
(0.0645145 -0.0189892 -0.042157)
(-0.0380021 0.00310494 -0.0234458)
(-0.0463539 0.00939375 -0.00659981)
(0.0597701 0.0379451 -0.0393617)
(-0.0720996 -0.0325899 -0.0145037)
(-0.00731711 -0.0141576 0.0645161)
(-0.0362687 -0.0572058 0.00915409)
(0.115506 -0.0470736 0.0763788)
(-0.0748638 -0.0220321 -0.0264012)
(-0.131447 -0.148254 0.0930586)
(-0.212461 0.0334679 -0.0255011)
(-0.264403 0.00795253 -0.301154)
(-0.0068406 -0.0382227 -0.000208959)
(-0.00511441 -0.0519697 0.0146695)
(0.0109803 -0.0123181 0.00311981)
(0.00674929 0.0379766 -0.0545322)
(0.0427955 0.0802576 0.066881)
(-0.178095 0.0934603 -0.0779575)
(0.210413 0.229672 -0.0647003)
(0.146381 0.455199 -0.24942)
(-0.0482451 0.0366385 -0.0192622)
(0.0580651 -0.106448 -0.0474566)
(0.0902216 -0.0523045 -0.305946)
(-0.00277813 0.134652 -0.397711)
(-0.184616 0.104618 0.111753)
(-0.0168056 -0.223307 -0.122679)
(0.082954 0.0656425 -0.132322)
(-0.0235327 0.00984802 -0.0127641)
(0.065255 0.064257 -0.0250224)
(-0.00744378 -0.0607947 -0.0551512)
(-0.0442271 -0.153276 -0.00733592)
(-0.241906 -0.0963807 0.229086)
(-0.122703 0.17932 0.188496)
(-0.0081276 -0.0333906 0.0134624)
(-0.112078 0.104221 0.0623261)
(-0.01569 0.0315838 0.0501916)
(0.0481663 -0.0279924 -0.0109041)
(-0.072674 -0.0289056 -0.0217674)
(0.0462865 -0.0627145 0.0428252)
(-0.591579 0.24628 -0.473439)
(-0.101252 -0.196434 0.0268343)
(0.00103748 -0.000633366 -0.000381185)
(-0.0214609 -0.0590464 0.0733536)
(-0.00366617 -0.00777321 0.145898)
(0.0350818 0.0566742 -0.0461347)
(-0.177301 0.0844005 0.276807)
(-0.0203514 0.0261306 0.0876748)
(-0.0896809 -0.0384868 -0.161787)
(0.00577389 -0.0161195 -0.0352833)
(-0.0750466 -0.0372338 0.227667)
(-0.0531569 0.047206 0.104274)
(-0.136897 -0.0141306 -0.0102639)
(-0.0325745 -0.0480866 0.0286618)
(0.0585841 0.00847799 -0.0381968)
(-0.0163053 -0.0144478 -0.0392774)
(-0.145667 0.0433235 0.0259437)
(-0.00675799 0.00416757 0.000713312)
(-0.0653513 0.137966 -0.0197779)
(0.0251168 -0.0876243 -0.0702284)
(0.140801 -0.00257326 0.0133335)
(-0.0040778 0.0159263 -0.0115236)
(0.0252254 -0.330661 -0.0985568)
(0.0466304 0.062999 0.026655)
(-0.183154 -0.243534 0.0974336)
(0.0113495 -0.0830668 0.0135667)
(0.0207608 -0.0857482 0.0764532)
(-0.0155933 0.0176886 -0.0300997)
(0.0198451 -0.012813 -0.0160183)
(0.0125189 0.0308251 -0.00988409)
(4.79763e-05 0.000834865 -0.0163248)
(0.0300749 0.0546605 0.0932561)
(-0.062513 0.000892059 0.0463577)
(0.0238165 0.027272 -0.010363)
(-0.0133294 -0.0112768 -0.0262059)
(-0.114649 -0.152093 0.202859)
(-0.106479 -0.0101851 -0.0533673)
(0.0923423 0.0322866 -0.037903)
(-0.147977 0.00952566 0.0591648)